 Gaussian 09, Revision D.01,

 ----------
 #p AM1 opt
 ----------

 -------
 comment
 -------
 Symbolic Z-matrix:
 Charge =  0 Multiplicity = 1

 SCF Done:  E(RAM1) = -0.472688765478E-01 A.U. after   13 cycles
 SCF Done:  E(RAM1) = -0.559938909865E-01 A.U. after   11 cycles
 SCF Done:  E(RAM1) = -0.563166696425E-01 A.U. after   10 cycles
 SCF Done:  E(RAM1) = -0.562803899618E-01 A.U. after   10 cycles
 SCF Done:  E(RAM1) = -0.563518479847E-01 A.U. after    7 cycles
 SCF Done:  E(RAM1) = -0.563552826235E-01 A.U. after    9 cycles
 SCF Done:  E(RAM1) = -0.563557139494E-01 A.U. after    9 cycles
 SCF Done:  E(RAM1) = -0.563560197230E-01 A.U. after    9 cycles
 Optimization completed.
    -- Stationary point found.
 Normal termination of Gaussian 09 at Wed Sep  9 23:43:26 2015.
 Gaussian 09:  ES64L-G09RevD.01 24-Apr-2013

 -----------------
 #p UHF/6-31g* opt
 -----------------

 -------
 comment
 -------
 Symbolic Z-matrix:
 Charge =  0 Multiplicity = 1

 SCF Done:  E(UHF) =  -150.759568292     A.U. after   11 cycles
 SCF Done:  E(UHF) =  -150.764701841     A.U. after   11 cycles
 SCF Done:  E(UHF) =  -150.764744720     A.U. after   11 cycles
 SCF Done:  E(UHF) =  -150.764785108     A.U. after    9 cycles
 SCF Done:  E(UHF) =  -150.764786842     A.U. after   10 cycles
 Optimization completed.
    -- Stationary point found.

                         Standard orientation:
 ---------------------------------------------------------------------
 Center     Atomic      Atomic             Coordinates (Angstroms)
 Number     Number       Type             X           Y           Z
 ---------------------------------------------------------------------
      1          1           0        0.787191    0.896832    0.437141
      2          8           0        0.000000    0.698317   -0.054643
      3          8           0        0.000000   -0.698317   -0.054643
      4          1           0       -0.787191   -0.896832    0.437141
 ---------------------------------------------------------------------

 The electronic state is 1-A.
 Alpha  occ. eigenvalues --  -20.62841 -20.62806  -1.49817  -1.20575  -0.72532
 Alpha  occ. eigenvalues --   -0.71473  -0.61845  -0.50826  -0.46872
 Alpha virt. eigenvalues --    0.22349   0.23100   0.34727   1.05756   1.06493
 Alpha virt. eigenvalues --    1.07015   1.09069   1.16771   1.22182   1.27083
 Alpha virt. eigenvalues --    1.34813   1.44177   1.56600   1.78096   1.78623

  Beta  occ. eigenvalues --  -20.62841 -20.62806  -1.49817  -1.20575  -0.72532
  Beta  occ. eigenvalues --   -0.71473  -0.61845  -0.50826  -0.46872
  Beta virt. eigenvalues --    0.22349   0.23100   0.34727   1.05756   1.06493
  Beta virt. eigenvalues --    1.07015   1.09069   1.16771   1.22182   1.27083
  Beta virt. eigenvalues --    1.34813   1.44177   1.56600   1.78096   1.78623

 Mulliken charges and spin densities:
               1          2
     1  H    0.461935   0.000000
     2  O   -0.461935   0.000000
     3  O   -0.461935   0.000000
     4  H    0.461935   0.000000
 Sum of Mulliken charges =   0.00000   0.00000

 Dipole moment (field-independent basis, Debye):
    X=              0.0000    Y=              0.0000    Z=              1.9512  Tot=              1.9512
 Quadrupole moment (field-independent basis, Debye-Ang):
   XX=             -9.2093   YY=            -11.0940   ZZ=            -11.4481
   XY=              3.1827   XZ=              0.0000   YZ=              0.0000

 Normal termination of Gaussian 09 at Wed Sep  9 23:43:29 2015.
