 Gaussian 09, Revision D.01,

 ----------
 #p AM1 opt
 ----------

 -------
 comment
 -------
 Symbolic Z-matrix:
 Charge =  0 Multiplicity = 1

 SCF Done:  E(RAM1) = -0.870771232775E-01 A.U. after    9 cycles
 SCF Done:  E(RAM1) = -0.939938063827E-01 A.U. after    8 cycles
 SCF Done:  E(RAM1) = -0.943816637574E-01 A.U. after    7 cycles
 SCF Done:  E(RAM1) = -0.943839347122E-01 A.U. after    6 cycles
 Optimization completed.
    -- Stationary point found.
 Normal termination of Gaussian 09 at Thu Sep 10 14:02:26 2015.
 Gaussian 09:  EM64L-G09RevD.01 24-Apr-2013

 -----------------
 #p UHF/6-31g* opt
 -----------------

 -------
 comment
 -------
 Symbolic Z-matrix:
 Charge =  0 Multiplicity = 1

 SCF Done:  E(UHF) =  -75.9995795721     A.U. after   10 cycles
 SCF Done:  E(UHF) =  -76.0105994053     A.U. after   10 cycles
 SCF Done:  E(UHF) =  -76.0107183077     A.U. after    9 cycles
 SCF Done:  E(UHF) =  -76.0107465127     A.U. after    8 cycles
 Optimization completed.
    -- Stationary point found.

                         Standard orientation:
 ---------------------------------------------------------------------
 Center     Atomic      Atomic             Coordinates (Angstroms)
 Number     Number       Type             X           Y           Z
 ---------------------------------------------------------------------
      1          8           0        0.000000    0.000000    0.114696
      2          1           0        0.000000    0.754024   -0.458783
      3          1           0        0.000000   -0.754024   -0.458783
 ---------------------------------------------------------------------

 The electronic state is 1-A1.
 Alpha  occ. eigenvalues --  -20.55788  -1.34614  -0.71425  -0.57082  -0.49821
 Alpha virt. eigenvalues --    0.21302   0.30686   1.03165   1.13340   1.16803
 Alpha virt. eigenvalues --    1.17849   1.38510   1.43123   2.02054   2.03059
 Alpha virt. eigenvalues --    2.06722   2.63561   2.96577   3.97769
  Beta  occ. eigenvalues --  -20.55788  -1.34614  -0.71425  -0.57082  -0.49821
  Beta virt. eigenvalues --    0.21302   0.30686   1.03165   1.13340   1.16803
  Beta virt. eigenvalues --    1.17849   1.38510   1.43123   2.02054   2.03059
  Beta virt. eigenvalues --    2.06722   2.63561   2.96577   3.97769

 Mulliken charges and spin densities:
               1          2
     1  O   -0.868738   0.000000
     2  H    0.434369   0.000000
     3  H    0.434369   0.000000
 Sum of Mulliken charges =   0.00000   0.00000

 Dipole moment (field-independent basis, Debye):
    X=              0.0000    Y=              0.0000    Z=             -2.1991  Tot=              2.1991
 Quadrupole moment (field-independent basis, Debye-Ang):
   XX=             -7.2057   YY=             -4.1059   ZZ=             -6.0007
   XY=              0.0000   XZ=              0.0000   YZ=              0.0000

 Normal termination of Gaussian 09 at Thu Sep 10 14:02:30 2015.
