 Gaussian 09, Revision D.01,
 Gaussian 09:  ES64L-G09RevD.01 24-Apr-2013

 -----------------------------------------
 #P ub3lyp/6-31g* SCF(QC,nosymm) opt=tight
 -----------------------------------------

 -------
 comment
 -------
 Symbolic Z-matrix:
 Charge =  0 Multiplicity = 1

 SCF Done:  E(UB3LYP) =  -151.519037097     a.u. after    6 cycles
 SCF Done:  E(UB3LYP) =  -151.532521871     a.u. after    7 cycles
 SCF Done:  E(UB3LYP) =  -151.533109678     a.u. after    4 cycles
 SCF Done:  E(UB3LYP) =  -151.533204891     a.u. after    3 cycles
 SCF Done:  E(UB3LYP) =  -151.533211200     a.u. after    3 cycles
 SCF Done:  E(UB3LYP) =  -151.533213040     a.u. after    3 cycles
 SCF Done:  E(UB3LYP) =  -151.533213050     a.u. after    2 cycles
 SCF Done:  E(UB3LYP) =  -151.533213050     a.u. after    2 cycles
 Optimization completed.
    -- Stationary point found.

                         Standard orientation:
 ---------------------------------------------------------------------
 Center     Atomic      Atomic             Coordinates (Angstroms)
 Number     Number       Type             X           Y           Z
 ---------------------------------------------------------------------
      1          1           0        0.825389    0.891619    0.435403
      2          8           0        0.000000    0.727885   -0.054425
      3          8           0        0.000000   -0.727885   -0.054425
      4          1           0       -0.825389   -0.891619    0.435403
 ---------------------------------------------------------------------

 The electronic state is 1-A.
 Alpha  occ. eigenvalues --  -19.20276 -19.20268  -1.11065  -0.89399  -0.52281
 Alpha  occ. eigenvalues --   -0.48876  -0.41170  -0.31802  -0.26932
 Alpha virt. eigenvalues --    0.02459   0.06906   0.11586   0.77723   0.78024
 Alpha virt. eigenvalues --    0.81223   0.83898   0.92153   0.95584   0.98370
 Alpha virt. eigenvalues --    1.04487   1.18803   1.31843   1.51014   1.51423

  Beta  occ. eigenvalues --  -19.20276 -19.20268  -1.11065  -0.89399  -0.52281
  Beta  occ. eigenvalues --   -0.48876  -0.41170  -0.31802  -0.26932
  Beta virt. eigenvalues --    0.02459   0.06906   0.11586   0.77723   0.78024
  Beta virt. eigenvalues --    0.81223   0.83898   0.92153   0.95584   0.98370
  Beta virt. eigenvalues --    1.04487   1.18803   1.31843   1.51014   1.51423

 Mulliken charges and spin densities:
               1          2
     1  H    0.417400   0.000000
     2  O   -0.417400   0.000000
     3  O   -0.417400   0.000000
     4  H    0.417400   0.000000
 Sum of Mulliken charges =   0.00000   0.00000

 Dipole moment (field-independent basis, Debye):
    X=              0.0000    Y=              0.0000    Z=              1.7816  Tot=              1.7816
 Quadrupole moment (field-independent basis, Debye-Ang):
   XX=             -9.1625   YY=            -11.0886   ZZ=            -11.5511
   XY=              3.0118   XZ=              0.0000   YZ=              0.0000

 Normal termination of Gaussian 09 at Mon Oct 12 20:13:56 2015.
