 Gaussian 09, Revision D.01,

 ----------
 #p AM1 opt
 ----------

 -------
 comment
 -------
 Symbolic Z-matrix:
 Charge =  0 Multiplicity = 1

 SCF Done:  E(RAM1) =  0.767352590957     A.U. after   11 cycles
 SCF Done:  E(RAM1) =  0.491786488198     A.U. after   10 cycles
 SCF Done:  E(RAM1) =  0.190004122943     A.U. after   10 cycles
 SCF Done:  E(RAM1) =  0.106137365558     A.U. after   11 cycles
 SCF Done:  E(RAM1) =  0.429168391884E-01 A.U. after   10 cycles
 SCF Done:  E(RAM1) = -0.271375217322E-02 A.U. after   11 cycles
 SCF Done:  E(RAM1) = -0.304352151989E-01 A.U. after   10 cycles
 SCF Done:  E(RAM1) = -0.343176912499E-01 A.U. after   10 cycles
 SCF Done:  E(RAM1) = -0.445331482625E-01 A.U. after   10 cycles
 SCF Done:  E(RAM1) = -0.450730062165E-01 A.U. after    8 cycles
 SCF Done:  E(RAM1) = -0.451750807564E-01 A.U. after    8 cycles
 Optimization completed.
    -- Stationary point found.
 Normal termination of Gaussian 09 at Tue Sep  8 20:13:58 2015.
 Gaussian 09:  ES64L-G09RevD.01 24-Apr-2013

 -----------------
 #p UHF/6-31g* opt
 -----------------

 -------
 comment
 -------
 Symbolic Z-matrix:
 Charge =  0 Multiplicity = 1

 SCF Done:  E(UHF) =  -149.146024579     A.U. after   10 cycles
 SCF Done:  E(UHF) =  -150.121897751     A.U. after   11 cycles
 SCF Done:  E(UHF) =  -150.697938447     A.U. after   12 cycles
 SCF Done:  E(UHF) =  -150.668943508     A.U. after   11 cycles
 SCF Done:  E(UHF) =  -150.744310323     A.U. after   11 cycles
 SCF Done:  E(UHF) =  -150.748891994     A.U. after   10 cycles
 SCF Done:  E(UHF) =  -150.750167868     A.U. after    9 cycles
 SCF Done:  E(UHF) =  -150.750199105     A.U. after    8 cycles
 SCF Done:  E(UHF) =  -150.750201234     A.U. after    8 cycles
 Optimization completed.
    -- Stationary point found.

                         Standard orientation:
 ---------------------------------------------------------------------
 Center     Atomic      Atomic             Coordinates (Angstroms)
 Number     Number       Type             X           Y           Z
 ---------------------------------------------------------------------
      1          1           0        0.000000    0.974313    0.807956
      2          8           0        0.000000    0.701806   -0.100994
      3          8           0        0.000000   -0.701806   -0.100994
      4          1           0        0.000000   -0.974313    0.807956
 ---------------------------------------------------------------------

 The electronic state is 1-A1.
 Alpha  occ. eigenvalues --  -20.63092 -20.63059  -1.49530  -1.21127  -0.78184
 Alpha  occ. eigenvalues --   -0.63399  -0.60607  -0.57017  -0.44544
 Alpha virt. eigenvalues --    0.18287   0.23120   0.36631   1.01032   1.06330
 Alpha virt. eigenvalues --    1.06561   1.12107   1.20356   1.22420   1.23065
 Alpha virt. eigenvalues --    1.32784   1.38797   1.69583   1.77536   1.79939

  Beta  occ. eigenvalues --  -20.63092 -20.63059  -1.49530  -1.21127  -0.78184
  Beta  occ. eigenvalues --   -0.63399  -0.60607  -0.57017  -0.44544
  Beta virt. eigenvalues --    0.18287   0.23120   0.36631   1.01032   1.06330
  Beta virt. eigenvalues --    1.06561   1.12107   1.20356   1.22420   1.23065
  Beta virt. eigenvalues --    1.32784   1.38797   1.69583   1.77536   1.79939

 Mulliken charges and spin densities:
               1          2
     1  H    0.446278   0.000000
     2  O   -0.446278   0.000000
     3  O   -0.446278   0.000000
     4  H    0.446278   0.000000
 Sum of Mulliken charges =   0.00000   0.00000

 Dipole moment (field-independent basis, Debye):
    X=              0.0000    Y=              0.0000    Z=              3.5410  Tot=              3.5410
 Quadrupole moment (field-independent basis, Debye-Ang):
   XX=            -12.5251   YY=            -10.5256   ZZ=             -8.9478
   XY=              0.0000   XZ=              0.0000   YZ=              0.0000

 Normal termination of Gaussian 09 at Tue Sep  8 20:14:02 2015.
