 Gaussian 09, Revision D.01,

 ----------
 #p AM1 opt
 ----------

 -------
 comment
 -------
 Symbolic Z-matrix:
 Charge =  0 Multiplicity = 1

 SCF Done:  E(RAM1) = -0.862166137843E-01 A.U. after    9 cycles
 SCF Done:  E(RAM1) = -0.938094578161E-01 A.U. after    7 cycles
 SCF Done:  E(RAM1) = -0.943815354404E-01 A.U. after    7 cycles
 SCF Done:  E(RAM1) = -0.943838809854E-01 A.U. after    6 cycles
 Optimization completed.
    -- Stationary point found.
 Normal termination of Gaussian 09 at Wed Sep  9 12:19:24 2015.
 Gaussian 09:  EM64L-G09RevD.01 24-Apr-2013

 -----------------
 #p UHF/6-31g* opt
 -----------------

 -------
 comment
 -------
 Symbolic Z-matrix:
 Charge =  0 Multiplicity = 1

 SCF Done:  E(UHF) =  -76.0048479056     A.U. after   10 cycles
 SCF Done:  E(UHF) =  -76.0106933573     A.U. after   10 cycles
 SCF Done:  E(UHF) =  -76.0107413375     A.U. after    8 cycles
 SCF Done:  E(UHF) =  -76.0107465155     A.U. after    8 cycles
 Optimization completed.
    -- Stationary point found.

                         Standard orientation:
 ---------------------------------------------------------------------
 Center     Atomic      Atomic             Coordinates (Angstroms)
 Number     Number       Type             X           Y           Z
 ---------------------------------------------------------------------
      1          8           0        0.000000    0.000000    0.114680
      2          1           0        0.000000    0.754067   -0.458720
      3          1           0        0.000000   -0.754067   -0.458720
 ---------------------------------------------------------------------

 The electronic state is 1-A1.
 Alpha  occ. eigenvalues --  -20.55787  -1.34613  -0.71427  -0.57080  -0.49821
 Alpha virt. eigenvalues --    0.21302   0.30687   1.03171   1.13339   1.16803
 Alpha virt. eigenvalues --    1.17846   1.38512   1.43119   2.02057   2.03057
 Alpha virt. eigenvalues --    2.06723   2.63564   2.96580   3.97771
  Beta  occ. eigenvalues --  -20.55787  -1.34613  -0.71427  -0.57080  -0.49821
  Beta virt. eigenvalues --    0.21302   0.30687   1.03171   1.13339   1.16803
  Beta virt. eigenvalues --    1.17846   1.38512   1.43119   2.02057   2.03057
  Beta virt. eigenvalues --    2.06723   2.63564   2.96580   3.97771

 Mulliken charges and spin densities:
               1          2
     1  O   -0.868759   0.000000
     2  H    0.434380   0.000000
     3  H    0.434380   0.000000
 Sum of Mulliken charges =   0.00000   0.00000

 Dipole moment (field-independent basis, Debye):
    X=              0.0000    Y=              0.0000    Z=             -2.1989  Tot=              2.1989
 Quadrupole moment (field-independent basis, Debye-Ang):
   XX=             -7.2057   YY=             -4.1055   ZZ=             -6.0010
   XY=              0.0000   XZ=              0.0000   YZ=              0.0000

 Normal termination of Gaussian 09 at Wed Sep  9 12:19:29 2015.
