 Gaussian 09, Revision D.01,
 Gaussian 09:  ES64L-G09RevD.01 24-Apr-2013

 ----------------------
 #P ub3lyp/6-31g* force
 ----------------------

 -------
 comment
 -------
 Symbolic Z-matrix:
 Charge =  0 Multiplicity = 1

                         Standard orientation:
 ---------------------------------------------------------------------
 Center     Atomic      Atomic             Coordinates (Angstroms)
 Number     Number       Type             X           Y           Z
 ---------------------------------------------------------------------
      1          1           0        0.825425    0.781242    0.435423
      2          8           0        0.000000    0.617500   -0.054428
      3          8           0        0.000000   -0.617500   -0.054428
      4          1           0       -0.825425   -0.781242    0.435423
 ---------------------------------------------------------------------

 SCF Done:  E(UB3LYP) =  -151.490137683     A.U. after   10 cycles

 The electronic state is 1-A.
 Alpha  occ. eigenvalues --  -19.18888 -19.18872  -1.23383  -0.85053  -0.56759
 Alpha  occ. eigenvalues --   -0.52786  -0.45245  -0.29079  -0.22985
 Alpha virt. eigenvalues --    0.07007   0.09210   0.24754   0.76872   0.77049
 Alpha virt. eigenvalues --    0.82260   0.83707   0.88280   0.94684   0.97774
 Alpha virt. eigenvalues --    1.05490   1.19472   1.35856   1.50801   1.53073

  Beta  occ. eigenvalues --  -19.18888 -19.18872  -1.23383  -0.85053  -0.56759
  Beta  occ. eigenvalues --   -0.52786  -0.45245  -0.29079  -0.22985
  Beta virt. eigenvalues --    0.07007   0.09210   0.24754   0.76872   0.77049
  Beta virt. eigenvalues --    0.82260   0.83707   0.88280   0.94684   0.97774
  Beta virt. eigenvalues --    1.05490   1.19472   1.35856   1.50801   1.53073

 Mulliken charges and spin densities:
               1          2
     1  H    0.400455   0.000000
     2  O   -0.400455   0.000000
     3  O   -0.400455   0.000000
     4  H    0.400455   0.000000
 Sum of Mulliken charges =   0.00000   0.00000

 Dipole moment (field-independent basis, Debye):
    X=              0.0000    Y=              0.0000    Z=              1.7300  Tot=              1.7300
 Quadrupole moment (field-independent basis, Debye-Ang):
   XX=             -9.0277   YY=            -11.7883   ZZ=            -11.3194
   XY=              2.5221   XZ=              0.0000   YZ=              0.0000

 Normal termination of Gaussian 09 at Wed Oct 21 22:11:38 2015.
