 Gaussian 09, Revision D.01,
 Gaussian 09:  EM64L-G09RevD.01 24-Apr-2013

 --------------------
 #P b3lyp/6-31g* fopt
 --------------------

 -------
 comment
 -------
 Symbolic Z-matrix:
 Charge =  0 Multiplicity = 1

 SCF Done:  E(RB3LYP) =  -229.905598358     A.U. after   15 cycles
 SCF Done:  E(RB3LYP) =  -229.967744583     A.U. after   13 cycles
 SCF Done:  E(RB3LYP) =  -230.018443457     A.U. after   14 cycles
 SCF Done:  E(RB3LYP) =  -230.020352228     A.U. after   12 cycles
 SCF Done:  E(RB3LYP) =  -230.020542228     A.U. after   11 cycles
 SCF Done:  E(RB3LYP) =  -230.020576033     A.U. after    8 cycles
 Optimization completed.
    -- Stationary point found.

                         Standard orientation:
 ---------------------------------------------------------------------
 Center     Atomic      Atomic             Coordinates (Angstroms)
 Number     Number       Type             X           Y           Z
 ---------------------------------------------------------------------
      1          8           0        1.106455    0.351173    0.000000
      2          6           0        0.662309   -0.938634    0.000000
      3          6           0       -0.697919   -0.974304    0.000000
      4          6           0       -1.132105    0.393661    0.000000
      5          6           0        0.000000    1.148640    0.000000
      6          1           0        1.431101   -1.696089    0.000000
      7          1           0       -1.318512   -1.859634    0.000000
      8          1           0       -2.149478    0.759364    0.000000
      9          1           0        0.191545    2.210790    0.000000
 ---------------------------------------------------------------------

 The electronic state is 1-A'.
 Alpha  occ. eigenvalues --  -19.21130 -10.23159 -10.23158 -10.18439 -10.18398
 Alpha  occ. eigenvalues --   -1.10331  -0.79276  -0.73938  -0.59318  -0.56550
 Alpha  occ. eigenvalues --   -0.53655  -0.44174  -0.44161  -0.40759  -0.39354
 Alpha  occ. eigenvalues --   -0.36677  -0.27353  -0.22440
 Alpha virt. eigenvalues --    0.01966   0.07862   0.11750   0.14157   0.15495
 Alpha virt. eigenvalues --    0.16643   0.19590   0.20581   0.31404   0.37875
 Alpha virt. eigenvalues --    0.43364   0.51517   0.53356   0.58155   0.58190

 Mulliken charges:
               1
     1  O   -0.393994
     2  C    0.079017
     3  C   -0.176792
     4  C   -0.176729
     5  C    0.079027
     6  H    0.154526
     7  H    0.140218
     8  H    0.140229
     9  H    0.154498
 Sum of Mulliken charges =   0.00000

 Dipole moment (field-independent basis, Debye):
    X=             -0.6009    Y=             -0.1908    Z=              0.0000  Tot=              0.6304
 Quadrupole moment (field-independent basis, Debye-Ang):
   XX=            -27.2619   YY=            -24.0600   ZZ=            -31.0413
   XY=             -1.1303   XZ=              0.0000   YZ=              0.0000

 Normal termination of Gaussian 09 at Thu Jan 14 12:48:50 2016.
