 Gaussian 09, Revision D.01,
 Gaussian 09:  EM64L-G09RevD.01 24-Apr-2013

 ----------
 #p AM1 opt
 ----------

 -------
 comment
 -------
 Symbolic Z-matrix:
 Charge =  0 Multiplicity = 1

 SCF Done:  E(RAM1) =  0.211557711945     A.U. after   11 cycles
 SCF Done:  E(RAM1) =  0.628526508605E-01 A.U. after    9 cycles
 SCF Done:  E(RAM1) = -0.322500298868E-01 A.U. after    9 cycles
 SCF Done:  E(RAM1) = -0.421835985007E-01 A.U. after   10 cycles
 SCF Done:  E(RAM1) = -0.451071611218E-01 A.U. after   10 cycles
 SCF Done:  E(RAM1) = -0.451704348390E-01 A.U. after    8 cycles
 SCF Done:  E(RAM1) = -0.451752845097E-01 A.U. after    8 cycles
 Optimization completed.
    -- Stationary point found.

                         Standard orientation:
 ---------------------------------------------------------------------
 Center     Atomic      Atomic             Coordinates (Angstroms)
 Number     Number       Type             X           Y           Z
 ---------------------------------------------------------------------
      1          8           0        0.000000    0.651388   -0.101759
      2          8           0        0.000000   -0.651388   -0.101759
      3          1           0        0.000000    0.994742    0.814069
      4          1           0        0.000000   -0.994742    0.814069
 ---------------------------------------------------------------------

 The electronic state is 1-A1.
 Alpha  occ. eigenvalues --   -1.46684  -1.20852  -0.78616  -0.61702  -0.57897
 Alpha  occ. eigenvalues --   -0.53521  -0.40677
 Alpha virt. eigenvalues --    0.09739   0.13093   0.23968

 Mulliken charges:
               1
     1  O   -0.185909
     2  O   -0.185909
     3  H    0.185909
     4  H    0.185909
 Sum of Mulliken charges =   0.00000

 Dipole moment (field-independent basis, Debye):
    X=              0.0000    Y=              0.0000    Z=              2.8325  Tot=              2.8325
 N-N= 4.490881527749D+01 E-N=-6.978873833509D+01  KE=-8.920267527746D+00
 Symmetry A1   KE=-4.668921978301D+00
 Symmetry A2   KE=-5.325141635787D-01
 Symmetry B1   KE=-8.654017225752D-01
 Symmetry B2   KE=-2.853429663291D+00
 Leave Link  601 at Wed Sep 16 09:42:53 2015, MaxMem=    33554432 cpu:         0.0
 (Enter /home/jujuman-home/APPS/g09/l9999.exe)
 1\1\GINC-JCOMP-OFFICE\FOpt\RAM1\ZDO\H2O2\JUJUMAN-HOME\16-Sep-2015\0\\#
 p AM1 opt\\comment\\0,1\O,0.0098697081,0.,-0.1513877972\O,0.0098697081
 ,0.,1.1513877972\H,0.9256976573,0.,-0.4947423839\H,0.9256976573,0.,1.4

 Normal termination of Gaussian 09 at Wed Sep 16 09:42:53 2015.
