 Gaussian 09, Revision D.01,
 Gaussian 09:  EM64L-G09RevD.01 24-Apr-2013

 -------------------------
 #P ub3lyp/6-31g* SCF(XQC)
 -------------------------

 -------
 comment
 -------
 Symbolic Z-matrix:
 Charge =  0 Multiplicity = 1

                         Standard orientation:
 ---------------------------------------------------------------------
 Center     Atomic      Atomic             Coordinates (Angstroms)
 Number     Number       Type             X           Y           Z
 ---------------------------------------------------------------------
      1          1           0        0.899449    0.418099    0.000000
      2          8           0        0.000000    0.386607    0.000000
      3          1           0       -0.899449   -3.510955    0.000000
 ---------------------------------------------------------------------

 SCF Done:  E(UB3LYP) =  -75.7936284070     A.U. after   65 cycles
 SCF Done:  E(UB3LYP) =  -76.1174577626     a.u. after   30 cycles

 The electronic state is 1-A'.
 Alpha  occ. eigenvalues --  -19.16840  -0.96957  -0.43663  -0.29028  -0.27418
 Alpha virt. eigenvalues --   -0.24333   0.11455   0.71846   0.85809   0.88677
 Alpha virt. eigenvalues --    0.88878   0.89646   1.13262   1.73972   1.76106
 Alpha virt. eigenvalues --    1.80877   1.80995   2.56251   3.43732
  Beta  occ. eigenvalues --  -19.16840  -0.96957  -0.43663  -0.29028  -0.27418
  Beta virt. eigenvalues --   -0.24333   0.11455   0.71846   0.85809   0.88677
  Beta virt. eigenvalues --    0.88878   0.89646   1.13262   1.73972   1.76106
  Beta virt. eigenvalues --    1.80877   1.80995   2.56251   3.43732

 Mulliken charges and spin densities:
               1          2
     1  H    0.402005   0.000000
     2  O   -0.495687   0.000000
     3  H    0.093682   0.000000
 Sum of Mulliken charges =   0.00000   0.00000

 Dipole moment (field-independent basis, Debye):
    X=              1.2883    Y=             -1.6927    Z=              0.0000  Tot=              2.1272
 Quadrupole moment (field-independent basis, Debye-Ang):
   XX=             -5.2512   YY=             -1.0869   ZZ=             -7.7129
   XY=              2.1578   XZ=              0.0000   YZ=              0.0000

 Normal termination of Gaussian 09 at Fri Oct  9 16:56:48 2015.
