 Gaussian 09, Revision D.01,
 Gaussian 09:  EM64L-G09RevD.01 24-Apr-2013

 -----------------------------
 #P HF/6-31g* opt=ModRedundant
 -----------------------------

 -------
 comment
 -------
 Symbolic Z-matrix:
 Charge =  0 Multiplicity = 1

 SCF Done:  E(RHF) =  -76.0051570003     A.U. after   10 cycles
 SCF Done:  E(RHF) =  -76.0106936427     A.U. after   10 cycles
 SCF Done:  E(RHF) =  -76.0107426093     A.U. after    8 cycles
 SCF Done:  E(RHF) =  -76.0107465132     A.U. after    8 cycles
 Optimization completed.
    -- Stationary point found.

                         Standard orientation:
 ---------------------------------------------------------------------
 Center     Atomic      Atomic             Coordinates (Angstroms)
 Number     Number       Type             X           Y           Z
 ---------------------------------------------------------------------
      1          8           0        0.000000    0.000000    0.114679
      2          1           0        0.000000    0.754035   -0.458718
      3          1           0        0.000000   -0.754035   -0.458718
 ---------------------------------------------------------------------

 The electronic state is 1-A1.
 Alpha  occ. eigenvalues --  -20.55787  -1.34615  -0.71429  -0.57081  -0.49821
 Alpha virt. eigenvalues --    0.21303   0.30688   1.03171   1.13340   1.16803
 Alpha virt. eigenvalues --    1.17850   1.38513   1.43120   2.02055   2.03057
 Alpha virt. eigenvalues --    2.06723   2.63567   2.96585   3.97772

 Mulliken charges:
               1
     1  O   -0.868756
     2  H    0.434378
     3  H    0.434378
 Sum of Mulliken charges =   0.00000

 Dipole moment (field-independent basis, Debye):
    X=              0.0000    Y=              0.0000    Z=             -2.1989  Tot=              2.1989
 Quadrupole moment (field-independent basis, Debye-Ang):
   XX=             -7.2056   YY=             -4.1056   ZZ=             -6.0009
   XY=              0.0000   XZ=              0.0000   YZ=              0.0000

 Normal termination of Gaussian 09 at Mon Sep 21 10:58:02 2015.
