 Gaussian 09, Revision D.01,
 Gaussian 09:  EM64L-G09RevD.01 24-Apr-2013

 -------------------------
 #P b3lyp/6-31g* opt=tight
 -------------------------

 -------
 comment
 -------
 Symbolic Z-matrix:
 Charge =  0 Multiplicity = 1

 SCF Done:  E(RB3LYP) =  -76.3986942893     A.U. after    9 cycles
 SCF Done:  E(RB3LYP) =  -76.4086068164     A.U. after    9 cycles
 SCF Done:  E(RB3LYP) =  -76.4089344427     A.U. after    9 cycles
 SCF Done:  E(RB3LYP) =  -76.4089533274     A.U. after    7 cycles
 SCF Done:  E(RB3LYP) =  -76.4089533399     A.U. after    5 cycles
 Optimization completed.
    -- Stationary point found.

                         Standard orientation:
 ---------------------------------------------------------------------
 Center     Atomic      Atomic             Coordinates (Angstroms)
 Number     Number       Type             X           Y           Z
 ---------------------------------------------------------------------
      1          8           0        0.000000    0.000000    0.119746
      2          1           0        0.000000    0.761557   -0.478985
      3          1           0        0.000000   -0.761557   -0.478985
 ---------------------------------------------------------------------

 The electronic state is 1-A1.
 Alpha  occ. eigenvalues --  -19.13817  -0.99788  -0.51713  -0.37222  -0.29119
 Alpha virt. eigenvalues --    0.06260   0.14811   0.77245   0.86092   0.89078
 Alpha virt. eigenvalues --    0.89509   1.06578   1.19344   1.72910   1.74638
 Alpha virt. eigenvalues --    1.77981   2.28056   2.57708   3.55190

 Mulliken charges:
               1
     1  O   -0.774317
     2  H    0.387159
     3  H    0.387159
 Sum of Mulliken charges =   0.00000

 Dipole moment (field-independent basis, Debye):
    X=              0.0000    Y=              0.0000    Z=             -2.0954  Tot=              2.0954
 Quadrupole moment (field-independent basis, Debye-Ang):
   XX=             -7.2039   YY=             -4.2866   ZZ=             -5.9898
   XY=              0.0000   XZ=              0.0000   YZ=              0.0000

 Normal termination of Gaussian 09 at Thu Sep 24 13:41:05 2015.
