 Gaussian 09, Revision D.01,
 Gaussian 09:  ES64L-G09RevD.01 24-Apr-2013

 ------------
 #p AM1 force
 ------------

 -------
 comment
 -------
 Symbolic Z-matrix:
 Charge =  0 Multiplicity = 1

                         Standard orientation:
 ---------------------------------------------------------------------
 Center     Atomic      Atomic             Coordinates (Angstroms)
 Number     Number       Type             X           Y           Z
 ---------------------------------------------------------------------
      1          8           0        0.000000    0.000000    0.141421
      2          1           0        0.000000    0.707107   -0.565685
      3          1           0        0.000000   -0.707107   -0.565685
 ---------------------------------------------------------------------

 SCF Done:  E(RAM1) = -0.870771232774E-01 A.U. after    9 cycles

 The electronic state is 1-A1.
 Alpha  occ. eigenvalues --   -1.32484  -0.62850  -0.57338  -0.45831
 Alpha virt. eigenvalues --    0.16398   0.19188

 Mulliken charges:
               1
     1  O   -0.359350
     2  H    0.179675
     3  H    0.179675
 Sum of Mulliken charges =   0.00000

 Dipole moment (field-independent basis, Debye):
    X=              0.0000    Y=              0.0000    Z=             -1.9527  Tot=              1.9527
 N-N= 1.791512836839D+01 E-N=-2.510376466472D+01  KE=-4.930590318156D+00
 Symmetry A1   KE=-3.168846711725D+00
 Symmetry A2   KE= 0.000000000000D+00
 Symmetry B1   KE=-6.626451928029D-01
 Symmetry B2   KE=-1.099098413627D+00
 Leave Link  601 at Thu Sep 10 10:20:55 2015, MaxMem=    33554432 cpu:         0.0
 (Enter /home/jujuman/Apps/g09/l701.exe)
 Compute integral first derivatives.
 ... and contract with generalized density number  0.
 Leave Link  701 at Thu Sep 10 10:20:55 2015, MaxMem=    33554432 cpu:         0.0

 Normal termination of Gaussian 09 at Thu Sep 10 10:20:55 2015.
