 Gaussian 09, Revision D.01,

 --------------------------------
 #P ub3lyp/6-31g* SCF(XQC,nosymm)
 --------------------------------

 -------
 comment
 -------
 Symbolic Z-matrix:
 Charge =  0 Multiplicity = 1

 SCF Done:  E(UB3LYP) =  -75.7180452382     A.U. after   65 cycles
 SCF Done:  E(UB3LYP) =  -75.7756885124     a.u. after   18 cycles
 Normal termination of Gaussian 09 at Sat Oct 10 09:45:55 2015.
 Gaussian 09:  ES64L-G09RevD.01 24-Apr-2013

 -------------------------------
 #P ub3lyp/6-31g* SCF(QC,nosymm)
 -------------------------------

 -------
 comment
 -------
 Symbolic Z-matrix:
 Charge =  0 Multiplicity = 1

                         Standard orientation:
 ---------------------------------------------------------------------
 Center     Atomic      Atomic             Coordinates (Angstroms)
 Number     Number       Type             X           Y           Z
 ---------------------------------------------------------------------
      1          1           0        0.899996    0.329663    0.000000
      2          8           0        0.000000    0.332280    0.000000
      3          1           0       -0.899996   -2.987902    0.000000
 ---------------------------------------------------------------------

 SCF Done:  E(UB3LYP) =  -76.1275070072     a.u. after   27 cycles

 The electronic state is 1-A'.
 Alpha  occ. eigenvalues --  -19.17118  -0.97100  -0.43794  -0.29165  -0.28104
 Alpha virt. eigenvalues --   -0.23810   0.11377   0.70801   0.86142   0.88787
 Alpha virt. eigenvalues --    0.89524   0.89658   1.13151   1.73882   1.76004
 Alpha virt. eigenvalues --    1.80780   1.80910   2.56151   3.43709
  Beta  occ. eigenvalues --  -19.17118  -0.97100  -0.43794  -0.29165  -0.28104
  Beta virt. eigenvalues --   -0.23810   0.11377   0.70801   0.86142   0.88787
  Beta virt. eigenvalues --    0.89524   0.89658   1.13151   1.73882   1.76004
  Beta virt. eigenvalues --    1.80780   1.80910   2.56151   3.43709

 Mulliken charges and spin densities:
               1          2
     1  H    0.402700   0.000000
     2  O   -0.500222   0.000000
     3  H    0.097523   0.000000
 Sum of Mulliken charges =   0.00000   0.00000

 Dipole moment (field-independent basis, Debye):
    X=              1.2647    Y=             -1.5843    Z=              0.0000  Tot=              2.0271
 Quadrupole moment (field-independent basis, Debye-Ang):
   XX=             -5.2162   YY=             -2.2485   ZZ=             -7.7238
   XY=              1.9565   XZ=              0.0000   YZ=              0.0000

 Normal termination of Gaussian 09 at Sat Oct 10 09:46:09 2015.
