 Gaussian 09, Revision D.01,

 ------------
 #p AM1 force
 ------------

 -------
 comment
 -------
 Symbolic Z-matrix:
 Charge =  0 Multiplicity = 1

 SCF Done:  E(RAM1) = -0.325249737162E-01 A.U. after    8 cycles

 1\1\GINC-JCOMP-OFFICE\Force\RAM1\ZDO\H2O1\JUJUMAN-HOME\04-Sep-2015\0\\
 #p AM1 force\\comment\\0,1\O,0.,0.,0.\H,0.,0.,1.\H,0.8660254038,0.,0.5
 \\Version=EM64L-G09RevD.01\State=1-A1\HF=-0.032525\RMSD=4.017e-09\RMSF
 =4.907e-02\Dipole=0.4458969,0.,0.7723161\PG=C02V [C2(O1),SGV(H2)]\\@

 Change starts when someone sees the next step.
                            -- William Drayton

 Normal termination of Gaussian 09 at Fri Sep  4 16:47:55 2015.
 Gaussian 09:  EM64L-G09RevD.01 24-Apr-2013

 -------------------
 #p UHF/6-31g* force
 -------------------

 -------
 comment
 -------
 Symbolic Z-matrix:
 Charge =  0 Multiplicity = 1

                         Standard orientation:
 ---------------------------------------------------------------------
 Center     Atomic      Atomic             Coordinates (Angstroms)
 Number     Number       Type             X           Y           Z
 ---------------------------------------------------------------------
      1          8           0        0.000000    0.000000    0.173205
      2          1           0        0.000000    0.500000   -0.692820
      3          1           0        0.000000   -0.500000   -0.692820
 ---------------------------------------------------------------------

 SCF Done:  E(UHF) =  -75.9407754012     A.U. after   10 cycles

 The electronic state is 1-A1.
 Alpha  occ. eigenvalues --  -20.58579  -1.36767  -0.66027  -0.58851  -0.50980
 Alpha virt. eigenvalues --    0.17649   0.28910   0.98124   1.05479   1.11462
 Alpha virt. eigenvalues --    1.15785   1.33779   1.42588   2.02704   2.05480
 Alpha virt. eigenvalues --    2.07701   2.61588   2.87674   3.85023
  Beta  occ. eigenvalues --  -20.58579  -1.36767  -0.66027  -0.58851  -0.50980
  Beta virt. eigenvalues --    0.17649   0.28910   0.98124   1.05479   1.11462
  Beta virt. eigenvalues --    1.15785   1.33779   1.42588   2.02704   2.05480
  Beta virt. eigenvalues --    2.07701   2.61588   2.87674   3.85023

 Mulliken charges and spin densities:
               1          2
     1  O   -0.775047   0.000000
     2  H    0.387524   0.000000
     3  H    0.387524   0.000000
 Sum of Mulliken charges =   0.00000   0.00000

 Dipole moment (field-independent basis, Debye):
    X=              0.0000    Y=              0.0000    Z=             -2.8696  Tot=              2.8696
 Quadrupole moment (field-independent basis, Debye-Ang):
   XX=             -7.3089   YY=             -6.1820   ZZ=             -4.6930
   XY=              0.0000   XZ=              0.0000   YZ=              0.0000

 Normal termination of Gaussian 09 at Fri Sep  4 16:47:56 2015.
